# vtk DataFile Version 3.0
vtk output
ASCII
DATASET STRUCTURED_POINTS
DIMENSIONS 2 2 2
SPACING 0.015 0.015 0.015
ORIGIN 0 -1.5 0
POINT_DATA 8
SCALARS region int
LOOKUP_TABLE default
0 1 1 1 1 5 1 6
# 0 1 1 1 0 5 0 6
# 0 1 1 1 4 5 4 6
