# vtk DataFile Version 3.0
vtk output
ASCII
DATASET STRUCTURED_POINTS
DIMENSIONS 2 2 2
SPACING 0.015 0.015 0.015
ORIGIN 0 -1.5 0
POINT_DATA 8
SCALARS ftle double
LOOKUP_TABLE default
1 1 1 1 1 1 1 1
